 Gaussian 16, Revision C.01,
 Gaussian 16:  ES64L-G16RevC.01  3-Jul-2019

 ----------------------------------------------------------------------
 #p uwb97xd geom=allcheck guess=read chkbasis Freq=(ReadFC,Raman) opt s
 crf=(cpcm,solvent=water)
 ----------------------------------------------------------------------

 Structure from the checkpoint file:  "NH2-PHZ-dummy2-Mn-6-Raman.chk"
 -----
 Title
 -----
 Charge =  2 Multiplicity = 6

 SCF Done:  E(UwB97XD) =  -1832.87231407     A.U. after    1 cycles
 Optimization completed.
    -- Stationary point found.
 Normal termination of Gaussian 16 at Tue Apr 19 19:44:18 2022.

 -------------------------------------------------------------------
 #P Geom=AllCheck Guess=TCheck SCRF=Check GenChk UwB97XD/ChkBas Freq
 -------------------------------------------------------------------

 Structure from the checkpoint file:  "NH2-PHZ-dummy2-Mn-6-Raman.chk"
 -----
 Title
 -----
 Charge =  2 Multiplicity = 6

                         Standard orientation:
 ---------------------------------------------------------------------
 Center     Atomic      Atomic             Coordinates (Angstroms)
 Number     Number       Type             X           Y           Z
 ---------------------------------------------------------------------
      1          6           0       -3.153383   -1.049010    0.021192
      2          6           0       -2.996005    0.399383   -0.019662
      3          6           0       -1.741989    0.964795    0.002624
      4          6           0       -0.571673    0.174257    0.007936
      5          6           0       -0.731087   -1.267749   -0.014448
      6          6           0       -2.040615   -1.830066    0.002246
      7          7           0        0.305485   -2.081818   -0.023721
      8          6           0        1.538295   -1.544929   -0.013554
      9          6           0        2.658801   -2.417546   -0.020103
     10          6           0        3.927810   -1.915322   -0.011339
     11          6           0        4.127186   -0.513257    0.003898
     12          6           0        3.066647    0.351302    0.009597
     13          6           0        1.735087   -0.135493    0.001828
     14          7           0        0.663521    0.707781    0.010867
     15          1           0       -1.691902    2.046122   -0.017809
     16          1           0       -2.116298   -2.911290    0.026067
     17          1           0        2.463804   -3.483943   -0.031986
     18          1           0        4.783869   -2.579693   -0.015831
     19          1           0        5.136056   -0.116754    0.011515
     20          1           0        3.273859    1.413256    0.021457
     21          7           0       -4.438251   -1.555812    0.007647
     22          1           0       -4.500355   -2.557741    0.116927
     23          1           0       -5.108362   -1.081186    0.597600
     24          7           0       -4.127312    1.156577   -0.035967
     25          1           0       -4.961256    0.760915   -0.442282
     26          1           0       -4.028539    2.148923   -0.182816
     27         25           0        1.000424    2.859044    0.015363
 ---------------------------------------------------------------------

 SCF Done:  E(UwB97XD) =  -1832.87231407     A.U. after    1 cycles
 SCF Done:  E(UwB97XD) =  -1832.87208254     A.U. after   15 cycles
 SCF Done:  E(UwB97XD) =  -1832.87260697     A.U. after   15 cycles
 SCF Done:  E(UwB97XD) =  -1832.86913631     A.U. after   14 cycles
 SCF Done:  E(UwB97XD) =  -1832.87552042     A.U. after   14 cycles
 SCF Done:  E(UwB97XD) =  -1832.87227102     A.U. after   10 cycles
 SCF Done:  E(UwB97XD) =  -1832.87237106     A.U. after   10 cycles

 Alpha  occ. eigenvalues -- -235.76975 -27.57843 -23.63290 -23.63242 -23.63056
 Alpha  occ. eigenvalues --  -14.51492 -14.48878 -14.48532 -14.48004 -10.38632
 Alpha  occ. eigenvalues --  -10.38422 -10.37527 -10.37393 -10.36933 -10.36000
 Alpha  occ. eigenvalues --  -10.32809 -10.32738 -10.32235 -10.32162 -10.31891
 Alpha  occ. eigenvalues --  -10.31561  -3.44814  -2.30947  -2.30755  -2.30624
 Alpha  occ. eigenvalues --   -1.11534  -1.07573  -1.04575  -1.02678  -0.98372
 Alpha  occ. eigenvalues --   -0.94067  -0.88599  -0.86640  -0.85190  -0.79365
 Alpha  occ. eigenvalues --   -0.76280  -0.74443  -0.72423  -0.68071  -0.67276
 Alpha  occ. eigenvalues --   -0.65819  -0.62000  -0.60975  -0.59938  -0.59648
 Alpha  occ. eigenvalues --   -0.56558  -0.56369  -0.54551  -0.54367  -0.53788
 Alpha  occ. eigenvalues --   -0.52914  -0.50991  -0.50595  -0.48038  -0.47783
 Alpha  occ. eigenvalues --   -0.46882  -0.46851  -0.46786  -0.46486  -0.46013
 Alpha  occ. eigenvalues --   -0.45754  -0.45438  -0.43124  -0.42234  -0.38376
 Alpha  occ. eigenvalues --   -0.36605  -0.35367  -0.30297  -0.29951
 Alpha virt. eigenvalues --   -0.05339   0.00239   0.02367   0.03715   0.04436
 Alpha virt. eigenvalues --    0.04687   0.05539   0.06351   0.06882   0.07243
 Alpha virt. eigenvalues --    0.07763   0.08219   0.09559   0.10141   0.10806

  Beta  occ. eigenvalues -- -235.76861 -27.49276 -23.56120 -23.56062 -23.55959
  Beta  occ. eigenvalues --  -14.51492 -14.48874 -14.48517 -14.48006 -10.38626
  Beta  occ. eigenvalues --  -10.38408 -10.37530 -10.37382 -10.36937 -10.36005
  Beta  occ. eigenvalues --  -10.32803 -10.32732 -10.32234 -10.32162 -10.31886
  Beta  occ. eigenvalues --  -10.31558  -3.22632  -2.06946  -2.06711  -2.06451
  Beta  occ. eigenvalues --   -1.11500  -1.07566  -1.04537  -1.02674  -0.98361
  Beta  occ. eigenvalues --   -0.94056  -0.88581  -0.86627  -0.85176  -0.79347
  Beta  occ. eigenvalues --   -0.76256  -0.74398  -0.72393  -0.68058  -0.67235
  Beta  occ. eigenvalues --   -0.65782  -0.61988  -0.60938  -0.59819  -0.59643
  Beta  occ. eigenvalues --   -0.56528  -0.56282  -0.54481  -0.54318  -0.53703
  Beta  occ. eigenvalues --   -0.52860  -0.50576  -0.48918  -0.46933  -0.46811
  Beta  occ. eigenvalues --   -0.46327  -0.45993  -0.45626  -0.43188  -0.38379
  Beta  occ. eigenvalues --   -0.36900  -0.35370  -0.30344  -0.29939
  Beta virt. eigenvalues --   -0.05547   0.01559   0.02124   0.02175   0.02277
  Beta virt. eigenvalues --    0.02556   0.02877   0.03688   0.04789   0.05743
  Beta virt. eigenvalues --    0.05998   0.06265   0.07519   0.07701   0.07863

 Mulliken charges and spin densities:
               1          2
     1  C    0.141269  -0.007071
     2  C    0.502442  -0.001707
     3  C   -0.243169  -0.001607
     4  C   -0.036871   0.027750
     5  C    0.029766  -0.022272
     6  C   -0.408066   0.005255
     7  N   -0.165987   0.008742
     8  C   -0.100195  -0.019217
     9  C   -0.233083   0.005971
    10  C   -0.177887  -0.003686
    11  C   -0.065318  -0.003128
    12  C   -0.066598  -0.005445
    13  C   -0.028300   0.032566
    14  N    0.078764   0.004205
    15  H    0.183556  -0.001595
    16  H    0.196814  -0.000077
    17  H    0.198993  -0.000094
    18  H    0.206526   0.000146
    19  H    0.208496  -0.000178
    20  H    0.187124  -0.001563
    21  N   -0.693808  -0.000635
    22  H    0.350999   0.000020
    23  H    0.342947  -0.000045
    24  N   -0.652654   0.002834
    25  H    0.349725  -0.000004
    26  H    0.354959  -0.000109
    27  Mn   1.539556   4.980944
 Sum of Mulliken charges =   2.00000   5.00000

 Dipole moment (field-independent basis, Debye):
    X=              2.0000    Y=             24.3408    Z=              0.4877  Tot=             24.4277
 Quadrupole moment (field-independent basis, Debye-Ang):
   XX=            -32.0743   YY=            -14.0168   ZZ=           -104.2972
   XY=             22.4649   XZ=             -1.4933   YZ=             -2.6814

  Exact polarizability:     552.201     -41.597     257.188       0.172       0.722     125.407
 Approx polarizability:     365.454     -23.642     214.491      -0.007       0.989     113.881

                      1                      2                      3
                      A                      A                      A
 Frequencies --     71.3745                84.2967               113.8683
 Red. masses --      5.2068                 5.2088                 5.3294
 Frc consts  --      0.0156                 0.0218                 0.0407
 IR Inten    --      0.8910                13.8741                13.2408
 Raman Activ --      3.4051                 0.5511                10.9642

                      4                      5                      6
                      A                      A                      A
 Frequencies --    152.9666               187.5148               191.2371
 Red. masses --     14.3364                15.9632                 4.9910
 Frc consts  --      0.1976                 0.3307                 0.1075
 IR Inten    --     42.1984                70.5162                 9.2629
 Raman Activ --      5.0451                12.9185                 3.7062

                      7                      8                      9
                      A                      A                      A
 Frequencies --    201.3576               219.8380               302.7327
 Red. masses --      5.4073                 4.0686                 1.3609
 Frc consts  --      0.1292                 0.1159                 0.0735
 IR Inten    --      4.4125                23.0193                32.1181
 Raman Activ --      2.9615                 4.1062                14.7730

                     10                     11                     12
                      A                      A                      A
 Frequencies --    324.0640               346.0195               365.2340
 Red. masses --      2.7926                 5.5177                 4.8519
 Frc consts  --      0.1728                 0.3892                 0.3813
 IR Inten    --     62.5377                14.8539                24.2234
 Raman Activ --     54.7244                18.9131                 6.6326

                     13                     14                     15
                      A                      A                      A
 Frequencies --    376.2112               379.9042               433.6535
 Red. masses --      6.3225                 3.7321                 1.9158
 Frc consts  --      0.5272                 0.3174                 0.2123
 IR Inten    --      4.2960                11.1306               221.4496
 Raman Activ --    137.8719                 5.2432                37.4492

                     16                     17                     18
                      A                      A                      A
 Frequencies --    495.0790               507.8431               512.5535
 Red. masses --      3.1207                 2.9465                 1.2718
 Frc consts  --      0.4507                 0.4477                 0.1969
 IR Inten    --    243.8262                23.9028               241.9601
 Raman Activ --     56.3949                12.1588                45.5372

                     19                     20                     21
                      A                      A                      A
 Frequencies --    520.8132               534.4576               549.7909
 Red. masses --      2.1761                 3.0394                 4.7148
 Frc consts  --      0.3478                 0.5115                 0.8397
 IR Inten    --    264.3058               277.7964                23.0532
 Raman Activ --    171.4921               178.6426                37.5243

                     22                     23                     24
                      A                      A                      A
 Frequencies --    575.6499               597.0758               637.6534
 Red. masses --      3.5330                 6.3265                 1.6626
 Frc consts  --      0.6898                 1.3288                 0.3983
 IR Inten    --      1.0493               119.9673               496.2896
 Raman Activ --      1.2350                 2.5842               325.0106

                     25                     26                     27
                      A                      A                      A
 Frequencies --    649.0198               671.4001               754.0510
 Red. masses --      7.9597                 3.0553                 7.4976
 Frc consts  --      1.9754                 0.8115                 2.5117
 IR Inten    --     16.9196               135.0039                48.3556
 Raman Activ --    134.6905                53.0456               164.0374

                     28                     29                     30
                      A                      A                      A
 Frequencies --    759.3488               770.8673               789.7580
 Red. masses --      2.8281                 3.4348                 1.3213
 Frc consts  --      0.9608                 1.2026                 0.4855
 IR Inten    --     84.7849                 5.2773               139.1899
 Raman Activ --     34.6507                16.4219                 7.5494

                     31                     32                     33
                      A                      A                      A
 Frequencies --    791.8122               829.1691               832.4968
 Red. masses --      5.1430                 2.5400                 5.4628
 Frc consts  --      1.8998                 1.0289                 2.2306
 IR Inten    --      3.7430                10.5976                11.9846
 Raman Activ --    344.6287                36.0238                30.2848

                     34                     35                     36
                      A                      A                      A
 Frequencies --    863.9214               897.3728               908.4332
 Red. masses --      1.9417                 1.7361                 2.0895
 Frc consts  --      0.8539                 0.8237                 1.0159
 IR Inten    --     70.2966                38.5924                 0.9591
 Raman Activ --      9.1891                14.1858                 4.0626

                     37                     38                     39
                      A                      A                      A
 Frequencies --    924.6305               939.3504              1008.5148
 Red. masses --      4.1861                 3.7501                 1.3316
 Frc consts  --      2.1086                 1.9496                 0.7980
 IR Inten    --     68.9749                51.0641                 1.5733
 Raman Activ --      2.1918                30.2202                11.5269

                     40                     41                     42
                      A                      A                      A
 Frequencies --   1037.7670              1059.0831              1115.1231
 Red. masses --      1.3381                 2.2195                 1.3967
 Frc consts  --      0.8491                 1.4668                 1.0233
 IR Inten    --      0.0055                 0.1490               156.9982
 Raman Activ --      2.0770               139.8306               202.8834

                     43                     44                     45
                      A                      A                      A
 Frequencies --   1123.0401              1164.6407              1199.3933
 Red. masses --      1.7189                 1.2919                 1.8677
 Frc consts  --      1.2773                 1.0324                 1.5830
 IR Inten    --     49.1061                68.3911               104.9508
 Raman Activ --     38.6729                 0.5609                40.3858

                     46                     47                     48
                      A                      A                      A
 Frequencies --   1248.8073              1252.9824              1277.8481
 Red. masses --      2.1282                 1.6731                 3.1382
 Frc consts  --      1.9555                 1.5476                 3.0192
 IR Inten    --    335.2245                35.9519                31.6207
 Raman Activ --      9.7044               384.6486                68.4073

                     49                     50                     51
                      A                      A                      A
 Frequencies --   1299.0716              1346.1192              1379.8157
 Red. masses --      2.4255                 4.0292                 2.9357
 Frc consts  --      2.4116                 4.3016                 3.2931
 IR Inten    --     41.0379                68.4182               335.2905
 Raman Activ --    608.8156                49.1768              1787.2096

                     52                     53                     54
                      A                      A                      A
 Frequencies --   1392.1239              1404.3477              1434.0571
 Red. masses --      2.6302                 5.6886                 2.8133
 Frc consts  --      3.0033                 6.6100                 3.4087
 IR Inten    --     36.6878                 2.7246               856.9680
 Raman Activ --    729.7596                93.0655               123.8238

                     55                     56                     57
                      A                      A                      A
 Frequencies --   1461.6345              1521.4525              1531.1656
 Red. masses --      4.8519                 3.8392                 3.0227
 Frc consts  --      6.1072                 5.2362                 4.1753
 IR Inten    --    758.5393                12.2398               281.9437
 Raman Activ --  10305.2721                21.5659               102.6411

                     58                     59                     60
                      A                      A                      A
 Frequencies --   1575.1469              1596.5052              1613.2348
 Red. masses --      3.6526                 5.6773                 2.8700
 Frc consts  --      5.3395                 8.5257                 4.4007
 IR Inten    --    191.3261                 3.4209               478.6471
 Raman Activ --    835.7319              1803.8392               819.6656

                     61                     62                     63
                      A                      A                      A
 Frequencies --   1634.3835              1637.5863              1674.4246
 Red. masses --      3.2693                 1.6742                 1.2142
 Frc consts  --      5.1453                 2.6452                 2.0057
 IR Inten    --    311.0883                42.8080               294.5835
 Raman Activ --   1265.6416                85.1862               250.5477

                     64                     65                     66
                      A                      A                      A
 Frequencies --   1682.6475              1710.1861              3213.3553
 Red. masses --      4.1138                 4.3403                 1.0867
 Frc consts  --      6.8625                 7.4792                 6.6109
 IR Inten    --     22.2916                35.9612                 0.6424
 Raman Activ --    196.2917                15.6324               102.6713

                     67                     68                     69
                      A                      A                      A
 Frequencies --   3217.3917              3219.6709              3222.6250
 Red. masses --      1.0903                 1.0920                 1.0910
 Frc consts  --      6.6500                 6.6697                 6.6754
 IR Inten    --     28.1868                18.4868                 4.7723
 Raman Activ --    131.9638               397.2034               362.2554

                     70                     71                     72
                      A                      A                      A
 Frequencies --   3234.5466              3279.3453              3594.6549
 Red. masses --      1.0983                 1.0865                 1.0493
 Frc consts  --      6.7704                 6.8842                 7.9886
 IR Inten    --     29.6590                57.6901               102.1010
 Raman Activ --    755.2331               459.8679               945.1632

                     73                     74                     75
                      A                      A                      A
 Frequencies --   3619.7107              3694.8452              3730.3284
 Red. masses --      1.0477                 1.0979                 1.1015
 Frc consts  --      8.0877                 8.8312                 9.0309
 IR Inten    --    264.6041                54.8277                80.6277
 Raman Activ --   1546.6705               129.4311               141.0753

 - Thermochemistry -
 -------------------
 Temperature   298.150 Kelvin.  Pressure   1.00000 Atm.
 Atom     1 has atomic number  6 and mass  12.00000

 Molecular mass:   265.02859 amu.
 Principal axes and moments of inertia in atomic units:
                           1         2         3
     Eigenvalues --  3029.787656124.117099149.13357
           X            0.99965  -0.02627  -0.00042
           Y            0.02627   0.99965  -0.00212
           Z            0.00048   0.00211   1.00000
 This molecule is an asymmetric top.
 Rotational symmetry number  1.
 Warning -- assumption of classical behavior for rotation
           may cause significant error
 Rotational temperatures (Kelvin)      0.02859     0.01414     0.00947
 Rotational constants (GHZ):           0.59567     0.29469     0.19726
 Zero-point vibrational energy     547114.5 (Joules/Mol)
                                  130.76350 (Kcal/Mol)
 Warning -- explicit consideration of  23 degrees of freedom as
           vibrations may cause significant error
 Vibrational temperatures:    102.69   121.28   163.83   220.08   269.79
          (Kelvin)            275.15   289.71   316.30   435.56   466.26
                              497.84   525.49   541.28   546.60   623.93
                              712.31   730.67   737.45   749.33   768.97
                              791.03   828.23   859.06   917.44   933.79
                              965.99  1084.91  1092.53  1109.11  1136.29
                             1139.24  1192.99  1197.78  1242.99  1291.12
                             1307.03  1330.34  1351.52  1451.03  1493.12
                             1523.78  1604.41  1615.80  1675.66  1725.66
                             1796.76  1802.76  1838.54  1869.07  1936.77
                             1985.25  2002.96  2020.54  2063.29  2102.97
                             2189.03  2203.01  2266.29  2297.01  2321.09
                             2351.51  2356.12  2409.12  2420.95  2460.58
                             4623.30  4629.11  4632.39  4636.64  4653.79
                             4718.25  5171.91  5207.96  5316.06  5367.11

 Zero-point correction=                           0.208385 (Hartree/Particle)
 Thermal correction to Energy=                    0.221961
 Thermal correction to Enthalpy=                  0.222905
 Thermal correction to Gibbs Free Energy=         0.166573
 Sum of electronic and zero-point Energies=          -1832.663929
 Sum of electronic and thermal Energies=             -1832.650353
 Sum of electronic and thermal Enthalpies=           -1832.649409
 Sum of electronic and thermal Free Energies=        -1832.705741

                     E (Thermal)             CV                S
                      KCal/Mol        Cal/Mol-Kelvin    Cal/Mol-Kelvin
 Total                  139.283             54.983            118.562
 Electronic               0.000              0.000              3.561
 Translational            0.889              2.981             42.623
 Rotational               0.889              2.981             33.495
 Vibrational            137.505             49.022             38.883
 Vibration     1          0.598              1.968              4.115
 Vibration     2          0.601              1.960              3.788
 Vibration     3          0.607              1.938              3.202
 Vibration     4          0.619              1.899              2.635
 Vibration     5          0.632              1.857              2.252
 Vibration     6          0.634              1.852              2.216
 Vibration     7          0.638              1.838              2.121
 Vibration     8          0.647              1.811              1.960
 Vibration     9          0.694              1.669              1.402
 Vibration    10          0.709              1.627              1.290
 Vibration    11          0.724              1.583              1.184
 Vibration    12          0.738              1.544              1.100
 Vibration    13          0.747              1.521              1.054
 Vibration    14          0.750              1.513              1.040
 Vibration    15          0.794              1.397              0.847
 Vibration    16          0.851              1.261              0.671
 Vibration    17          0.863              1.233              0.639
 Vibration    18          0.868              1.222              0.627
 Vibration    19          0.876              1.204              0.608
 Vibration    20          0.889              1.174              0.577
 Vibration    21          0.905              1.140              0.545
 Vibration    22          0.932              1.084              0.493
 Vibration    23          0.955              1.038              0.455

 Optimization completed.
    -- Stationary point found.
 Normal termination of Gaussian 16 at Tue Apr 19 22:45:49 2022.
